<?xml version="1.0"?>
<VTKFile type="UnstructuredGrid"  version="0.1"  >
<UnstructuredGrid>
<Piece  NumberOfPoints="12056" NumberOfCells="64387">
<Points>
<DataArray  type="Float64"  NumberOfComponents="3"  format="ascii">3.061616997868383e-15 0 -50  3.061616997868383e-15 0 50  5.817072295949927e-16 0 -9.5  5.817072295949927e-16 0 9.5  4.023328435836301 0 -49.8378654067105  8.020564042888012 0 -49.35251313189564  11.96578321437789 0 -48.5470908713026  15.83339969007363 0 -47.42682209735727  19.59833049300375 0 -45.99897218294121  23.23615860218843 0 -44.2728012826605  26.72329130639005 0 -42.25950427718974  30.03711321189895 0 -39.97213817017506  33.15613291203976 0 -37.42553740855505  36.06012236719073 0 -34.63621767547997  38.73024809138273 0 -31.62226877976886  41.14919329468282 0 -28.40323733655779  43.30127018922193 0 -25  45.17252173051912 0 -21.43462807015271  46.75081213427074 0 -17.73024435212679  48.02590558156862 0 -13.91087319582264  48.98953260211339 0 -10.00128468880222  49.6354437049027 0 -6.026834012766157  49.95944990857848 0 -2.013297005470759  49.95944990857848 0 2.01329700547075  49.6354437049027 0 6.026834012766149  48.98953260211339 0 10.00128468880222  48.02590558156862 0 13.91087319582264  46.75081213427074 0 17.73024435212679  45.17252173051912 0 21.4346280701527  43.30127018922194 0 24.99999999999999  41.14919329468282 0 28.40323733655779  38.73024809138273 0 31.62226877976886  36.06012236719072 0 34.63621767547998  33.15613291203977 0 37.42553740855505  30.03711321189895 0 39.97213817017505  26.72329130639005 0 42.25950427718974  23.23615860218844 0 44.27280128266049  19.59833049300375 0 45.99897218294121  15.83339969007363 0 47.42682209735727  11.9657832143779 0 48.5470908713026  8.020564042888012 0 49.35251313189564  4.023328435836312 0 49.8378654067105  1.563648607666971 0 -9.370432382325863  3.08464495744449 0 -8.98526379615603  4.521500233852196 0 -8.355000636461646  5.835020770551841 0 -7.496834839265742  6.989377151394746 0 -6.434174930444545  7.953081543494019 0 -5.196007502163059  8.699846603223044 0 -3.816106534203215  9.209302526423638 0 -2.332112127837597  9.467552683563364 0 -0.7845037819871628  9.467552683563365 0 0.7845037819871495  9.20930252642364 0 2.332112127837586  8.699846603223047 0 3.816106534203206  7.953081543494026 0 5.19600750216305  6.989377151394755 0 6.434174930444536  5.83502077055185 0 7.496834839265735  4.521500233852203 0 8.355000636461645  3.084644957444496 0 8.985263796156028  1.563648607666977 0 9.370432382325863  -49.99933987155224 0.2398937905994704 0.0919966208004271  -49.64266330596004 -3.673128401848583 -4.702563942640361  -49.59284959802763 4.55866378531486 4.446105401345038  -48.87773731431373 -8.426734471387327 -6.321150305258919  -48.9422263317422 8.516891636175311 5.667542549480144  -48.50156880076065 1.105363682301211 -12.09859475290127  -48.65646495000132 0.06704270086576536 11.5127722050579  -47.91348719405038 -2.336628858824341 -14.10098969865871  -47.73532504166494 0.8017462236271027 14.85583879016921  -46.9836835592448 -0.2611008477733142 -17.10161704494759  -47.06216377533791 -2.332969946770289 16.72453263953102  -46.04947248039858 2.941686229144125 -19.25597482357819  -46.52555472490248 1.916614284307714 18.21261505729729  -45.68386238707286 -2.091376297771344 -20.21412532315237  -45.94924368538231 -1.797858087577755 19.63249120815505  -44.65168823534365 1.29111847447218 -22.46240750272663  -44.5538217024739 0.8083308544391158 22.67826212331816  -42.9737571911952 -0.370407524230099 -25.55619281384049  -43.28280105699065 -1.695640408126853 24.97446568532141  -41.96986121603982 -0.01732160789280575 27.17591671808434  -41.03289892154838 0.2863174073912557 -28.56955072163752  -40.68896465154602 -1.638756359426021 29.01245651749743  -39.13616354068071 -1.786564755379894 -31.06716739086342  -39.02721063547388 1.015048213535781 31.23854201364962  -37.35676926000529 0.6973167344604633 -33.22627785092042  -37.37756748663639 -0.7901684229259465 33.20079942780524  -35.42944038205521 -1.700059066317268 -35.2400986574304  -35.47135790711697 1.690539969589325 35.19836420682687  -33.53137152478376 0.1083189794075134 -37.08955905191677  -33.53135392185931 -0.108102322854007 37.08957559820285  -31.01984317599616 -2.141993847953436 -39.15585769322305  -30.75456978944791 2.606320256961006 39.33654193983162  -28.50176459860518 -4.173808537183892 -40.8684320357489  -27.85228427563631 1.223791549305804 41.50605491820428  -26.9677871878851 0.6567247170539148 -42.09877868578791  -25.17454060307136 2.338073836877117 43.13671193029926  -24.22537249754011 -2.058761831506977 -43.69087807628221  -25.39169011910455 -1.049512557926234 43.05996512174764  -23.00958476797532 1.032707391833086 44.37896488482141  -20.8576308523641 1.359810505437006 -45.42147235191537  -20.49948290262025 -0.5548637610704654 45.6011329566693  -17.60301666263415 -1.172626752004581 -46.78417201228967  -18.01086648939135 0.6975130629397062 46.6382049807703  -14.78049050460661 1.093961018779087 -47.75290933265349  -15.53764950732355 -1.867036616664951 47.48784709859567  -12.50364769092851 -0.9680874576030648 -48.40166940401509  -12.6529521924334 -0.08521691790435064 48.37246674393293  -9.824721492062283 -0.0390414072212186 -49.02523149738236  -9.29251197062883 0.8972709570231487 49.12070974757391  -6.587059270589987 1.136303243025784 -49.55118025946126  -5.694374854212994 1.143649407620973 49.66151589563245  -3.816296328092855 -1.878971836737272 -49.81872486498358  -3.890062211378038 -1.584608938106012 49.82325190616208  -16.38364662954953 -47.2301150188442 -0.9446472488705112  -16.38369724791518 47.23009838909771 0.9446007859444484  -3.637925236385983 -49.78914423466323 -2.794032275111792  10.73420655157722 -48.76480047098345 2.602123120309594  -3.479943876019076 49.80306896291543 2.746691190295548  11.03358737569987 48.70963204583809 -2.373119377920053  9.549107497515379 -48.98456574439062 -3.05399162316605  9.565888986149949 48.98572932782778 2.981960785363754  -5.812563466058021 -49.43876371775409 -4.692840079645686  0.1252409239297687 -49.73516773097415 5.137840546653946  -5.735865573437455 49.45088738343906 4.659354366635193  0.1266508424133206 49.73507840514969 -5.138670606074005  1.071175007527802 -49.45896910734858 -7.25692489568319  2.161018873792524 49.41987218360359 7.280537808664713  2.285922249618072 -49.441953889788 7.089975671945453  2.285922249618161 49.441953889788 -7.089975671945458  -2.156662593188911 -49.08696021290891 -9.263862235344259  -1.530954206780851 -49.20937340117186 8.723173085568108  -2.042982049388234 49.10246736392269 9.207275553646916  -1.527646806229857 49.20933305480935 -8.723980486925919  1.802655028485016 -48.80850465809458 10.69954708803309  1.743569400637732 48.98172580469294 -9.886885401330275  -1.496341988161342 -48.53582522432044 -11.91782826058025  -1.746190870966774 -48.43039827234315 12.30639429826518  -1.435713441649236 48.53594339751913 11.92480295125614  -1.120179645765714 48.44185705140016 -12.33416729953525  1.598797254871083 -48.00165890769381 -13.90268281473891  1.125849333468981 48.02296751552134 13.87541185988763  1.691900485327938 -47.93002977591603 14.13682136930186  1.293897187090076 47.54026261834653 -15.435325077493  -0.8081453861416751 -47.06310612590345 -16.8644876239039  -1.658104889622621 -47.37471880179221 15.90241197511013  -0.4993461386903325 47.03527040695335 16.95387835212207  -1.972677847531939 46.94274400110405 -17.10226089605307  -4.265848374382536 -45.93878341434368 -19.27253787275563  -0.6575102502769617 -46.38956787768517 18.64338146346903  0.229674056594448 46.43295333040479 -18.54529845659482  -2.016461378605352 46.02061739945932 19.44316480620311  -0.4649326370132638 44.81836329239718 22.16073440646191  -0.9966559305563576 45.21922687537427 -21.31263000545725  -1.188195014151232 -45.08167373099587 -21.5923802814878  -0.09203196269560324 -44.52420192227176 22.75053786842443  1.976182457040101 -44.03210427045089 -23.60653503614259  -1.831963713085658 -43.94411949316095 -23.78146906573959  -1.326660285294085 43.49415673457106 24.62718624682875  -0.9728756762309175 43.91434435236749 -23.88689751768295  1.0433142664591 -42.79712503498214 -25.83249086095857  1.794797864597297 -43.11913671172574 25.24913364574599  1.803012071214432 42.12358641452932 26.87661837078349  1.209867866752404 42.63475671503269 -26.0924077002291  -0.7944908092697174 -41.74421970579667 27.50979653701864  -1.326392498536394 -41.32643325229092 -28.11345936706775  -1.271769853670249 41.46746698913063 27.90755781046879  0.5115110614030723 -40.43972577261734 29.40011795672887  -0.8128886608595558 40.85753475476199 -28.80973907879872  -1.784346091279945 -39.20884424074656 -30.97551682105415  -1.949429814778034 39.44572474155457 30.66324384357865  1.989083439937019 -38.12918022206399 -32.28326443627306  -0.8394104034783616 -39.09891778409659 31.15397275287676  1.790240361568487 38.21927467072203 32.18822895239371  -0.9305775987025516 38.96393275043893 -31.32005699152008  1.247870451912441 -37.74568534887416 32.76745423250073  1.185993062807496 37.53674688132892 -33.0088784120578  -2.088857252795319 -37.2763414800302 -33.25824771754556  -2.127316581721503 37.30094405198209 33.22821236527832  0.2728902057313027 -36.3345118590193 34.34718007205834  -0.5900071591248497 36.26216216511328 -34.41957998963974  2.169599363239707 -34.07423407267279 -36.52724203883636  2.243783638948588 34.44623080677373 36.17212487797833  2.016815754988932 -34.59515404028034 36.04313764282604  2.016752961262252 34.59522363057411 -36.04307436171069  -1.906579928112467 -33.2435474671257 -37.29921587350971  -2.372160766037092 -33.21668269803109 37.29644545849371  -1.939345709065823 33.26644565104944 37.27710466179612  -2.372160893335208 33.21668270661947 -37.29644544274827  2.645646544328608 -32.14176679698262 38.20873436180355  2.675019551803297 32.22031923852342 -38.14046799090314  1.525344387056818 -31.89602521942592 -38.47488661065319  2.01468939963708 32.00243191718128 38.
[...]
<PointData  Scalars="f_25"> 
<DataArray  type="Float64"  Name="f_25"  format="ascii">2.8237248320100705e-08  2.8237248320100705e-08  4.5466289298031574e-08  4.5466289298031574e-08  2.8237248320100705e-08  2.8237248320100705e-08  2.8237248320100705e-08  2.8237248320100705e-08  2.8237248320100705e-08  2.8237248320100705e-08  2.8237248320100705e-08  2.8237248320100705e-08  2.8237248320100705e-08  2.8237248320100705e-08  2.8237248320100705e-08  2.8237248320100705e-08  2.8237248320100705e-08  2.8237248320100705e-08  2.8237248320100705e-08  2.8237248320100705e-08  2.8237248320100705e-08  2.8237248320100705e-08  2.8237248320100705e-08  2.8237248320100705e-08  2.8237248320100705e-08  2.8237248320100705e-08  2.8237248320100705e-08  2.8237248320100705e-08  2.8237248320100705e-08  2.8237248320100705e-08  2.8237248320100705e-08  2.8237248320100705e-08  2.8237248320100705e-08  2.8237248320100705e-08  2.8237248320100705e-08  2.8237248320100705e-08  2.8237248320100705e-08  2.8237248320100705e-08  2.8237248320100705e-08  2.8237248320100705e-08  2.8237248320100705e-08  2.8237248320100705e-08  4.5466289298031574e-08  4.5466289298031574e-08  4.5466289298031574e-08  4.5466289298031574e-08  4.5466289298031574e-08  4.5466289298031574e-08  4.5466289298031574e-08  4.5466289298031574e-08  4.5466289298031574e-08  4.5466289298031574e-08  4.5466289298031574e-08  4.5466289298031574e-08  4.5466289298031574e-08  4.5466289298031574e-08  4.5466289298031574e-08  4.5466289298031574e-08  4.5466289298031574e-08  4.5466289298031574e-08  2.8237248320100705e-08  2.8237248320100705e-08  2.8237248320100705e-08  2.8237248320100705e-08  2.8237248320100705e-08  2.8237248320100705e-08  2.8237248320100705e-08  2.8237248320100705e-08  2.8237248320100705e-08  2.8237248320100705e-08  2.8237248320100705e-08  2.8237248320100705e-08  2.8237248320100705e-08  2.8237248320100705e-08  2.8237248320100705e-08  2.8237248320100705e-08  2.8237248320100705e-08  2.8237248320100705e-08  2.8237248320100705e-08  2.8237248320100705e-08  2.8237248320100705e-08  2.8237248320100705e-08  2.8237248320100705e-08  2.8237248320100705e-08  2.8237248320100705e-08  2.8237248320100705e-08  2.8237248320100705e-08  2.8237248320100705e-08  2.8237248320100705e-08  2.8237248320100705e-08  2.8237248320100705e-08  2.8237248320100705e-08  2.8237248320100705e-08  2.8237248320100705e-08  2.8237248320100705e-08  2.8237248320100705e-08  2.8237248320100705e-08  2.8237248320100705e-08  2.8237248320100705e-08  2.8237248320100705e-08  2.8237248320100705e-08  2.8237248320100705e-08  2.8237248320100705e-08  2.8237248320100705e-08  2.8237248320100705e-08  2.8237248320100705e-08  2.8237248320100705e-08  2.8237248320100705e-08  2.8237248320100705e-08  2.8237248320100705e-08  2.8237248320100705e-08  2.8237248320100705e-08  2.8237248320100705e-08  2.8237248320100705e-08  2.8237248320100705e-08  2.8237248320100705e-08  2.8237248320100705e-08  2.8237248320100705e-08  2.8237248320100705e-08  2.8237248320100705e-08  2.8237248320100705e-08  2.8237248320100705e-08  2.8237248320100705e-08  2.8237248320100705e-08  2.8237248320100705e-08  2.8237248320100705e-08  2.8237248320100705e-08  2.8237248320100705e-08  2.8237248320100705e-08  2.8237248320100705e-08  2.8237248320100705e-08  2.8237248320100705e-08  2.8237248320100705e-08  2.8237248320100705e-08  2.8237248320100705e-08  2.8237248320100705e-08  2.8237248320100705e-08  2.8237248320100705e-08  2.8237248320100705e-08  2.8237248320100705e-08  2.8237248320100705e-08  2.8237248320100705e-08  2.8237248320100705e-08  2.8237248320100705e-08  2.8237248320100705e-08  2.8237248320100705e-08  2.8237248320100705e-08  2.8237248320100705e-08  2.8237248320100705e-08  2.8237248320100705e-08  2.8237248320100705e-08  2.8237248320100705e-08  2.8237248320100705e-08  2.8237248320100705e-08  2.8237248320100705e-08  2.8237248320100705e-08  2.8237248320100705e-08  2.8237248320100705e-08  2.8237248320100705e-08  2.8237248320100705e-08  2.8237248320100705e-08  2.8237248320100705e-08  2.8237248320100705e-08  2.8237248320100705e-08  2.8237248320100705e-08  2.8237248320100705e-08  2.8237248320100705e-08  2.8237248320100705e-08  2.8237248320100705e-08  2.8237248320100705e-08  2.8237248320100705e-08  2.8237248320100705e-08  2.8237248320100705e-08  2.8237248320100705e-08  2.8237248320100705e-08  2.8237248320100705e-08  2.8237248320100705e-08  2.8237248320100705e-08  2.8237248320100705e-08  2.8237248320100705e-08  2.8237248320100705e-08  2.8237248320100705e-08  2.8237248320100705e-08  2.8237248320100705e-08  2.8237248320100705e-08  2.8237248320100705e-08  2.8237248320100705e-08  2.8237248320100705e-08  2.8237248320100705e-08  2.8237248320100705e-08  2.8237248320100705e-08  2.8237248320100705e-08  2.8237248320100705e-08  2.8237248320100705e-08  2.8237248320100705e-08  2.8237248320100705e-08  2.8237248320100705e-08  2.8237248320100705e-08  2.8237248320100705e-08  2.8237248320100705e-08  2.8237248320100705e-08  2.8237248320100705e-08  2.8237248320100705e-08  2.8237248320100705e-08  2.8237248320100705e-08  2.8237248320100705e-08  2.8237248320100705e-08  2.8237248320100705e-08  2.8237248320100705e-08  2.8237248320100705e-08  2.8237248320100705e-08  2.8237248320100705e-08  2.8237248320100705e-08  2.8237248320100705e-08  2.8237248320100705e-08  2.8237248320100705e-08  2.8237248320100705e-08  2.8237248320100705e-08  2.8237248320100705e-08  2.8237248320100705e-08  2.8237248320100705e-08  2.8237248320100705e-08  2.8237248320100705e-08  2.8237248320100705e-08  2.8237248320100705e-08  2.8237248320100705e-08  2.8237248320100705e-08  2.8237248320100705e-08  2.8237248320100705e-08  2.8237248320100705e-08  2.8237248320100705e-08  2.8237248320100705e-08  2.8237248320100705e-08  2.8237248320100705e-08  2.8237248320100705e-08  2.8237248320100705e-08  2.8237248320100705e-08  2.8237248320100705e-08  2.8237248320100705e-08  2.8237248320100705e-08  2.8237248320100705e-08  2.8237248320100705e-08  2.8237248320100705e-08  2.8237248320100705e-08  2.8237248320100705e-08  2.8237248320100705e-08  2.8237248320100705e-08  2.8237248320100705e-08  2.8237248320100705e-08  2.8237248320100705e-08  2.8237248320100705e-08  2.8237248320100705e-08  2.8237248320100705e-08  2.8237248320100705e-08  2.8237248320100705e-08  2.8237248320100705e-08  2.8237248320100705e-08  2.8237248320100705e-08  2.8237248320100705e-08  2.8237248320100705e-08  2.8237248320100705e-08  2.8237248320100705e-08  2.8237248320100705e-08  2.8237248320100705e-08  2.8237248320100705e-08  2.8237248320100705e-08  2.8237248320100705e-08  2.8237248320100705e-08  2.8237248320100705e-08  2.8237248320100705e-08  2.8237248320100705e-08  2.8237248320100705e-08  2.8237248320100705e-08  2.8237248320100705e-08  2.8237248320100705e-08  2.8237248320100705e-08  2.8237248320100705e-08  2.8237248320100705e-08  2.8237248320100705e-08  2.8237248320100705e-08  2.8237248320100705e-08  2.8237248320100705e-08  2.8237248320100705e-08  2.8237248320100705e-08  2.8237248320100705e-08  2.8237248320100705e-08  2.8237248320100705e-08  2.8237248320100705e-08  2.8237248320100705e-08  2.8237248320100705e-08  2.8237248320100705e-08  2.8237248320100705e-08  2.8237248320100705e-08  2.8237248320100705e-08  2.8237248320100705e-08  2.8237248320100705e-08  2.8237248320100705e-08  2.8237248320100705e-08  2.8237248320100705e-08  2.8237248320100705e-08  2.8237248320100705e-08  2.8237248320100705e-08  2.8237248320100705e-08  2.8237248320100705e-08  2.8237248320100705e-08  2.8237248320100705e-08  2.8237248320100705e-08  2.8237248320100705e-08  2.8237248320100705e-08  2.8237248320100705e-08  2.8237248320100705e-08  2.8237248320100705e-08  2.8237248320100705e-08  2.8237248320100705e-08  2.8237248320100705e-08  2.8237248320100705e-08  2.8237248320100705e-08  2.8237248320100705e-08  2.8237248320100705e-08  2.8237248320100705e-08  2.8237248320100705e-08  2.8237248320100705e-08  2.8237248320100705e-08  2.8237248320100705e-08  2.8237248320100705e-08  2.8237248320100705e-08  2.8237248320100705e-08  2.8237248320100705e-08  2.8237248320100705e-08  2.8237248320100705e-08  2.8237248320100705e-08  2.8237248320100705e-08  2.8237248320100705e-08  2.8237248320100705e-08  2.8237248320100705e-08  2.8237248320100705e-08  2.8237248320100705e-08  2.8237248320100705e-08  2.8237248320100705e-08  2.8237248320100705e-08  2.8237248320100705e-08  2.8237248320100705e-08  2.8237248320100705e-08  2.8237248320100705e-08  2.8237248320100705e-08  2.8237248320100705e-08  2.8237248320100705e-08  2.8237248320100705e-08  2.8237248320100705e-08  2.8237248320100705e-08  2.8237248320100705e-08  2.8237248320100705e-08  2.8237248320100705e-08  2.8237248320100705e-08  2.8237248320100705e-08  2.8237248320100705e-08  2.8237248320100705e-08  2.8237248320100705e-08  2.8237248320100705e-08  2.8237248320100705e-08  2.8237248320100705e-08  2.8237248320100705e-08  2.8237248320100705e-08  2.8237248320100705e-08  2.8237248320100705e-08  2.8237248320100705e-08  2.8237248320100705e-08  2.8237248320100705e-08  2.8237248320100705e-08  2.8237248320100705e-08  2.8237248320100705e-08  2.8237248320100705e-08  2.8237248320100705e-08  2.8237248320100705e-08  2.8237248320100705e-08  2.8237248320100705e-08  2.8237248320100705e-08  2.8237248320100705e-08  2.8237248320100705e-08  2.8237248320100705e-08  2.8237248320100705e-08  2.8237248320100705e-08  2.8237248320100705e-08  2.8237248320100705e-08  2.8237248320100705e-08  2.8237248320100705e-08  2.8237248320100705e-08  2.8237248320100705e-08  2.8237248320100705e-08  2.8237248320100705e-08  2.8237248320100705e-08  2.8237248320100705e-08  2.8237248320100705e-08  2.8237248320100705e-08  2.8237248320100705e-08  2.8237248320100705e-08  2.8237248320100705e-08  2.8237248320100705e-08  2.8237248320100705e-08  2.8237248320100705e-08  2.8237248320100705e-08  2.8237248320100705e-08  2.8237248320100705e-08  2.8237248320100705e-08  2.8237248320100705e-08  2.8237248320100705e-08  2.8237248320100705e-08  2.8237248320100705e-08  2.8237248320100705e-08  2.8237248320100705e-08  2.8237248320100705e-08  2.8237248320100705e-08  2.8237248320100705e-08  2.8237248320100705e-08  2.8237248320100705e-08  2.8237248320100705e-08  2.8237248320100705e-08  2.8237248320100705e-08  2.8237248320100705e-08  2.8237248320100705e-08  2.8237248320100705e-08  2.8237248320100705e-08  2.8237248320100705e-08  2.8237248320100705e-08  2.8237248320100705e-08  2.8237248320100705e-08  2.8237248320100705e-08  2.8237248320100705e-08  2.8237248320100705e-08  2.8237248320100705e-08  2.8237248320100705e-08  2.8237248320100705e-08  2.8237248320100705e-08  2.8237248320100705e-08  2.8237248320100705e-08  2.8237248320100705e-08  2.8237248320100705e-08  2.8237248320100705e-08  2.8237248320100705e-08  2.8237248320100705e-08  2.8237248320100705e-08  2.8237248320100705e-08  2.8237248320100705e-08  2.8237248320100705e-08  2.8237248320100705e-08  2.8237248320100705e-08  2.8237248320100705e-08  2.8237248320100705e-08  2.8237248320100705e-08  2.8237248320100705e-08  2.8237248320100705e-08  2.8237248320100705e-08  2.8237248320100705e-08  2.8237248320100705e-08  2.8237248320100705e-08  2.8237248320100705e-08  2.8237248320100705e-08  2.8237248320100705e-08  2.8237248320100705e-08  2.8237248320100705e-08  2.8237248320100705e-08  2.8237248320100705e-08  2.8237248320100705e-08  2.8237248320100705e-08  2.8237248320100705e-08  2.8237248320100705e-08  2.8237248320100705e-08  2.8237248320100705e-08  2.8237248320100705e-08  2.8237248320100705e-08  2.8237248320100705e-08  2.8237248320100705e-08  2.8237248320100705e-08  2.8237248320100705e-08  2.8237248320100705e-08  2.8237248320100705e-08  2.8237248320100705e-08  2.8237248320100705e-08  2.8237248320100705e-08  2.8237248320100705e-08  2.8237248320100705e-08  2.8237248320100705e-08  2.8237248320100705e-08  2.8237248320100705e-08  2.8237248320100705e-08  2.8237248320100705e-08  2.8237248320100705e-08  2.8237248320100705e-08  2.8237248320100705e-08  2.8237248320100705e-08  2.8237248320100705e-08  2.8237248320100705e-08  2.8237248320100705e-08  2.8237248320100705e-08  2.8237248320100705e-08  2.8237248320100705e-08  2.8237248320100705e-08  2.8237248320100705e-08  2.8237248320100705e-08  2.8237248320100705e-08  2.8237248320100705e-08  2.8237248320100705e-08  2.8237248320100705e-08  2.8237248320100705e-08  2.8237248320100705e-08  2.8237248320100705e-08  2.8237248320100705e-08  2.8237248320100705e-08  2.8237248320100705e-08  2.8237248320100705e-08  2.8237248320100705e-08  2.8237248320100705e-08  2.8237248320100705e-08  2.8237248320100705e-08  2.8237248320100705e-08  2.8237248320100705e-08  2.8237248320100705e-08  2.8237248320100705e-08  2.8237248320100705e-08  2.8237248320100705e-08  2.8237248320100705e-08  2.8237248320100705e-08  2.8237248320100705e-08  2.8237248320100705e-08  2.8237248320100705e-08  2.8237248320100705e-08  2.8237248320100705e-08  2.8237248320100705e-08  2.8237248320100705e-08  2.8237248320100705e-08  2.8237248320100705e-08  2.8237248320100705e-08  2.8237248320100705e-08  2.8237248320100705e-08  2.8237248320100705e-08  2.8237248320100705e-08  2.8237248320100705e-08  2.8237248320100705e-08  2.8237248320100705e-08  2.8237248320100705e-08  2.8237248320100705e-08  2.8237248320100705e-08  2.8237248320100705e-08  2.8237248320100705e-08  2.8237248320100705e-08  2.8237248320100705e-08  2.8237248320100705e-08  2.8237248320100705e-08  2.8237248320100705e-08  2.8237248320100705e-08  2.8237248320100705e-08  2.8237248320100705e-08  2.8237248320100705e-08  2.8237248320100705e-08  2.8237248320100705e-08  2.8237248320100705e-08  2.8237248320100705e-08  2.8237248320100705e-08  2.8237248320100705e-08  2.8237248320100705e-08  2.8237248320100705e-08  2.8237248320100705e-08  2.8237248320100705e-08  2.8237248320100705e-08  2.8237248320100705e-08  2.8237248320100705e-08  2.8237248320100705e-08  2.8237248320100705e-08  2.8237248320100705e-08  2.8237248320100705e-08  2.8237248320100705e-08  2.8237248320100705e-08  2.8237248320100705e-08  2.8237248320100705e-08  2.8237248320100705e-08  2.8237248320100705e-08  2.8237248320100705e-08  2.8237248320100705e-08  2.8237248320100705e-08  2.8237248320100705e-08  2.8237248320100705e-08  2.8237248320100705e-08  2.8237248320100705e-08  2.8237248320100705e-08  2.8237248320100705e-08  2.8237248320100705e-08  2.8237248320100705e-08  2.8237248320100705e-08  2.8237248320100705e-08  2.8237248320100705e-08  2.8237248320100705e-08  2.8237248320100705e-08  2.8237248320100705e-08  2.8237248320100705e-08  2.8237248320100705e-08  2.8237248320100705e-08  2.8237248320100705e-08  2.8237248320100705e-08  2.8237248320100705e-08  2.8237248320100705e-08  2.8237248320100705e-08  2.8237248320100705e-08  2.8237248320100705e-08  2.8237248320100705e-08  2.8237248320100705e-08  2.8237248320100705e-08  2.8237248320100705e-08  2.8237248320100705e-08  2.8237248320100705e-08  2.8237248320100705e-08  2.8237248320100705e-08  2.8237248320100705e-08  2.8237248320100705e-08  2.8237248320100705e-08  2.8237248320100705e-08  2.8237248320100705e-08  2.8237248320100705e-08  2.8237248320100705e-08  2.8237248320100705e-08  2.8237248320100705e-08  2.8237248320100705e-08  2.8237248320100705e-08  2.8237248320100705e-08  2.8237248320100705e-08  2.8237248320100705e-08  2.8237248320100705e-08  2.8237248320100705e-08  2.8237248320100705e-08  2.8237248320100705e-08  2.8237248320100705e-08  2.8237248320100705e-08  2.8237248320100705e-08  2.8237248320100705e-08  2.8237248320100705e-08  2.8237248320100705e-08  2.8237248320100705e-08  2.8237248320100705e-08  2.8237248320100705e-08  2.8237248320100705e-08  2.8237248320100705e-08  2.8237248320100705e-08  2.8237248320100705e-08  2.8237248320100705e-08  2.8237248320100705e-08  2.8237248320100705e-08  2.8237248320100705e-08  2.8237248320100705e-08  2.8237248320100705e-08  2.8237248320100705e-08  2.8237248320100705e-08  2.8237248320100705e-08  2.8237248320100705e-08  2.8237248320100705e-08  2.8237248320100705e-08  2.8237248320100705e-08  2.8237248320100705e-08  2.8237248320100705e-08  2.8237248320100705e-08  2.8237248320100705e-08  2.8237248320100705e-08  2.8237248320100705e-08  2.8237248320100705e-08  2.8237248320100705e-08  2.8237248320100705e-08  2.8237248320100705e-08  2.8237248320100705e-08  2.8237248320100705e-08  2.8237248320100705e-08  2.8237248320100705e-08  2.8237248320100705e-08  2.8237248320100705e-08  2.8237248320100705e-08  2.8237248320100705e-08  2.8237248320100705e-08  2.8237248320100705e-08  2.8237248320100705e-08  2.8237248320100705e-08  2.8237248320100705e-08  2.8237248320100705e-08  2.8237248320100705e-08  2.8237248320100705e-08  2.8237248320100705e-08  2.8237248320100705e-08  2.8237248320100705e-08  2.8237248320100705e-08  2.8237248320100705e-08  2.8237248320100705e-08  2.8237248320100705e-08  2.8237248320100705e-08  2.8237248320100705e-08  2.8237248320100705e-08  2.8237248320100705e-08  2.8237248320100705e-08  2.8237248320100705e-08  2.8237248320100705e-08  2.8237248320100705e-08  2.8237248320100705e-08  2.8237248320100705e-08  2.8237248320100705e-08  2.8237248320100705e-08  2.8237248320100705e-08  2.8237248320100705e-08  2.8237248320100705e-08  2.8237248320100705e-08  2.8237248320100705e-08  2.8237248320100705e-08  2.8237248320100705e-08  2.8237248320100705e-08  2.8237248320100705e-08  2.8237248320100705e-08  2.8237248320100705e-08  2.8237248320100705e-08  2.8237248320100705e-08  2.8237248320100705e-08  2.8237248320100705e-08  2.8237248320100705e-08  2.8237248320100705e-08  2.8237248320100705e-08  2.8237248320100705e-08  2.8237248320100705e-08  2.8237248320100705e-08  2.8237248320100705e-08  2.8237248320100705e-08  2.8237248320100705e-08  2.8237248320100705e-08  2.8237248320100705e-08  2.8237248320100705e-08  2.8237248320100705e-08  2.8237248320100705e-08  2.8237248320100705e-08  2.8237248320100705e-08  2.8237248320100705e-08  2.8237248320100705e-08  2.8237248320100705e-08  2.8237248320100705e-08  2.8237248320100705e-08  2.8237248320100705e-08  2.8237248320100705e-08  2.8237248320100705e-08  2.8237248320100705e-08  2.8237248320100705e-08  2.8237248320100705e-08  2.8237248320100705e-08  2.8237248320100705e-08  2.8237248320100705e-08  2.8237248320100705e-08  2.8237248320100705e-08  2.8237248320100705e-08  2.8237248320100705e-08  2.8237248320100705e-08  2.8237248320100705e-08  2.8237248320100705e-08  2.8237248320100705e-08  2.8237248320100705e-08  2.8237248320100705e-08  2.8237248320100705e-08  2.8237248320100705e-08  2.8237248320100705e-08  2.8237248320100705e-08  2.8237248320100705e-08  2.8237248320100705e-08  2.8237248320100705e-08  2.8237248320100705e-08  2.8237248320100705e-08  2.8237248320100705e-08  2.8237248320100705e-08  2.8237248320100705e-08  2.8237248320100705e-08  2.8237248320100705e-08  2.8237248320100705e-08  2.8237248320100705e-08  2.8237248320100705e-08  2.8237248320100705e-08  2.8237248320100705e-08  2.8237248320100705e-08  2.8237248320100705e-08  2.8237248320100705e-08  2.8237248320100705e-08  2.8237248320100705e-08  2.8237248320100705e-08  2.8237248320100705e-08  2.8237248320100705e-08  2.8237248320100705e-08  2.8237248320100705e-08  2.8237248320100705e-08  2.8237248320100705e-08  2.8237248320100705e-08  2.8237248320100705e-08  2.8237248320100705e-08  2.8237248320100705e-08  2.8237248320100705e-08  2.8237248320100705e-08  2.8237248320100705e-08  2.8237248320100705e-08  2.8237248320100705e-08  2.8237248320100705e-08  2.8237248320100705e-08  2.8237248320100705e-08  2.8237248320100705e-08  2.8237248320100705e-08  2.8237248320100705e-08  2.8237248320100705e-08  2.8237248320100705e-08  2.8237248320100705e-08  2.8237248320100705e-08  2.8237248320100705e-08  2.8237248320100705e-08  2.8237248320100705e-08  2.8237248320100705e-08  2.8237248320100705e-08  2.8237248320100705e-08  2.8237248320100705e-08  2.8237248320100705e-08  2.8237248320100705e-08  2.8237248320100705e-08  2.8237248320100705e-08  2.8237248320100705e-08  2.8237248320100705e-08  2.8237248320100705e-08  2.8237248320100705e-08  2.8237248320100705e-08  2.8237248320100705e-08  2.8237248320100705e-08  2.8237248320100705e-08  2.8237248320100705e-08  2.8237248320100705e-08  2.8237248320100705e-08  2.8237248320100705e-08  2.8237248320100705e-08  2.8237248320100705e