<?xml version="1.0"?>
<VTKFile type="UnstructuredGrid"  version="0.1"  >
<UnstructuredGrid>
<Piece  NumberOfPoints="12790" NumberOfCells="65994">
<Points>
<DataArray  type="Float64"  NumberOfComponents="3"  format="ascii">3.061616997868383e-15 0 -50  3.061616997868383e-15 0 50  3.203510999035648 0 -49.89726963751681  6.393858084225299 0 -49.58950069116231  9.557931435068614 0 -49.07795784955326  12.68272919547538 0 -48.36474315195147  15.75541090118104 0 -47.45278735053343  18.76335024396871 0 -46.34583786730109  21.69418695587791 0 -45.04844339512096  24.53587760019689 0 -43.56593520616946  27.27674506052743 0 -41.90440524459203  29.90552652456079 0 -40.07068109339784  32.41141976538942 0 -38.07229791845672  34.78412753017432 0 -35.91746750488637  37.01389985376578 0 -33.61504451306584  39.09157412340149 0 -31.17449009293668  41.00861272984779 0 -28.60583300610849  42.75713815026731 0 -25.91962841552625  44.32996531865 0 -23.12691451204176  45.72063115079062 0 -20.2391671561197  46.92342110248802 0 -17.26825272106538  47.93339265183303 0 -14.22637933155163  48.74639560909118 0 -11.12604669781572  49.35908917072251 0 -7.979994751668968  49.76895564745991 0 -4.801151295384093  49.9743108100344 0 -1.602578878582761  49.9743108100344 0 1.60257887858276  49.76895564745991 0 4.801151295384076  49.35908917072251 0 7.979994751668953  48.74639560909118 0 11.12604669781571  47.93339265183303 0 14.22637933155162  46.92342110248803 0 17.26825272106536  45.72063115079063 0 20.23916715611968  44.32996531865 0 23.12691451204175  42.75713815026732 0 25.91962841552624  41.00861272984779 0 28.60583300610848  39.0915741234015 0 31.17449009293666  37.01389985376579 0 33.61504451306583  34.78412753017432 0 35.91746750488637  32.41141976538943 0 38.07229791845671  29.90552652456082 0 40.07068109339782  27.27674506052745 0 41.90440524459203  24.5358776001969 0 43.56593520616946  21.69418695587792 0 45.04844339512096  18.76335024396871 0 46.34583786730109  15.75541090118104 0 47.45278735053343  12.68272919547539 0 48.36474315195147  9.557931435068625 0 49.07795784955326  6.393858084225311 0 49.5895006911623  3.203510999035659 0 49.89726963751681  -49.99973137504099 -0.1446286741033895 -0.0771036339533691  -49.45682743790437 -7.137549886344427 -1.754309379013252  -49.46120213715293 7.058073793184956 1.942441113046737  -49.71388350700779 3.94481420948468 -3.601142527630225  -49.72371653973869 -3.353606163188067 4.037987020526923  -49.34621143124492 -0.9613417670025965 -8.001702280758071  -48.92939905063556 0.4999576537788304 -10.2792971981596  -48.32544266619927 2.74621330846113 -12.53434894920033  -48.81265699571608 -0.8761010164661719 10.79615505758954  -48.30951770487368 -0.4865011408999034 -12.88230630603074  -48.2392489317165 1.10472779408028 13.1055117795863  -47.62797983026128 -2.073184174558525 -15.07572368633043  -47.54282857978769 2.596630794589301 15.26227241106359  -45.99090922730932 0.881492719492542 19.59742939854298  -45.78724070236029 2.270728106309911 -19.95926809107326  -44.06061275084992 3.06750784870612 -23.43614301922924  -43.14748879056197 -0.6858199419529839 -25.25517495634407  -43.11950024816223 -3.454572007988661 25.07537897201873  -41.70324348284149 -2.655398360626097 -27.45520611026664  -42.53731159318383 0.2955720501253621 26.27717183388603  -40.91424121668278 -0.4996264341302006 28.73630524422746  -40.28692550206236 -0.856542520995093 -29.60118187675966  -39.84154857182282 -2.412582255695256 30.11362572422304  -38.96375893271198 1.395976000405386 -31.30298293836866  -39.34570697139808 0.273282734168628 30.85191500487582  -38.83340174503788 3.385077203126133 31.31306694077354  -37.42935231308758 0.7574394500365745 -33.14317231199049  -37.57297139757829 1.044874587307605 32.97241358247168  -37.09158112142873 -3.013887702814154 -33.39357858671779  -36.98889133016853 -2.887808249669088 33.51839020117355  -35.80887693271846 -0.5044761292978277 -34.89226041190786  -35.73910369874623 -0.3675063618856682 34.96543158441258  -34.36715489102522 1.349912699991246 -36.29154723070765  -34.24459098809836 1.664061628720493 36.39421502043522  -32.94428334645445 -0.1346407767850673 -37.61191389240583  -32.38967094332501 0.7492415034303584 38.08343279370526  -31.38789534401 -1.641283819327789 -38.88580992210254  -30.3426741499048 -0.1475733021981682 39.74041202042547  -29.47004578674551 0.5734834221782753 -40.38796253949449  -28.31905168369011 -0.8524589377203001 41.19835707277645  -27.30640673628829 -1.242987894750282 -41.86663507192684  -26.64645196286535 1.188805428385553 42.29129153199451  -25.32183027769338 -2.31754116401909 -43.05152627190781  -24.35169320810411 -1.039632819674109 43.65677726881169  -23.05517599489324 -3.965629265504999 -44.18973460401261  -22.50339715743799 1.530093669910702 44.62349078384513  -22.3121436858491 0.7753648449643177 -44.73887631019824  -21.50019304877675 -1.871638065898241 45.1025350708318  -19.24622281575121 -0.5341160337427087 -46.14431305577055  -19.60576051385703 1.242118336320552 45.97903105451289  -16.89491346404857 -0.6946000485056293 47.05400545984291  -14.75677450004862 1.342968014855785 47.75389034692136  -13.47470010404763 -0.6444447928194953 -48.14579055343246  -14.02816175302282 -1.178716183165646 47.97729990308512  -11.73098606218991 -0.7966563146737089 -48.5978323047952  -11.59695090115291 -1.575569357805108 48.61098961135223  -10.21226009936977 0.793584199895278 -48.93955422539621  -10.25147205778776 0.5188234056045015 48.93504003188507  -7.872886042280692 0.4368659860269717 -49.37435380311842  -8.180258083271752 0.4338457684354137 49.32438702650321  -4.93154151053349 1.358475911478786 -49.73765617243958  -5.377908284610872 -0.8788756256395186 49.70216977272693  -3.475693822790949 -0.4171724140711962 -49.87730465479416  -3.282831120449802 1.143191273671883 49.87901496166906  -11.33615818948764 -48.69445908701244 -0.5840990722331427  -11.99507239465364 48.53985451893267 0.02759579441576146  8.364317926166407 -49.10142614411665 4.368997166841516  8.147741851440495 49.14385264154993 -4.300703461982822  -7.166322862444341 -49.32883886615468 -3.91273213345284  -5.709567442000428 -49.4718554114309 4.465015316404177  -1.454845838613295 49.80282833841648 4.190669765096021  -6.18191275449242 49.3817671708279 -4.819234978913943  -5.75556828406599 -49.35103766520425 -5.598974468154482  -4.087144562321225 49.4907105205107 5.82793458282604  -3.773307843312054 -49.39962324231934 -6.740873195402955  -1.374674473988977 49.54985480896715 6.551500477053867  -4.836799391183764 49.11776990583333 -8.003127584079724  -3.304760070508302 49.29594479779236 7.680389792802357  1.657631186008575 49.0691290477017 9.459008053235248  2.239980203038206 49.25442903675344 -8.305643199260128  -4.316961515845515 -48.74244019381609 10.27318680950418  -0.8940486807997738 48.83870551047409 10.67621285932176  1.715890076270184 -48.37265358071644 -12.53563348244352  0.3464467285372039 48.02969128154698 -13.89347796858568  2.439256281364785 47.38335776625469 -15.77553281473985  -3.939419377931469 -47.09899857404611 -16.31457349386678  -3.966751062214793 46.9097955618743 16.84446396753473  2.08397149769158 -47.04136202189235 -16.81568678115985  1.127001183126419 47.13640528614647 16.63998693008425  2.540652697291762 46.51913453806934 -18.15255369640171  0.1760975747581937 45.56333617215827 20.59007980817603  -0.6152033794531746 46.30870993622609 -18.84475812644951  0.6554302658842476 -45.65724394266832 20.37121711450348  4.343542772384954 44.996397978755 -21.36487315951011  3.257350314699321 -44.6599254098919 22.24591493533633  0.4589884591560733 -44.44988351877935 -22.89098479229999  -0.7467006490436765 -44.33256470542241 23.10987115455758  -0.1153343606103337 44.48885984480309 22.81946642002676  0.04239984357871504 44.39590304539814 -23.00004337032589  3.5666646406247 43.80169324609046 23.84723405589653  3.140284868919728 43.33596536214234 -24.74131599315673  3.410685753507061 -43.90444940780649 -23.6805098105633  2.613723925554897 -43.62705600007812 24.28679542481943  -0.09762906275621976 43.13646036961131 25.28312194621263  -2.074008250749439 -42.56755250607161 -26.14769518368033  -0.3933839079673385 42.86721941239639 -25.73415529894888  -0.4965845847769511 -42.99578420176739 25.51697365725826  -0.6048773889993346 -41.35337036733734 -28.0986277708735  -0.510265045783645 -41.46110908919741 27.94129672503986  -0.3818754945752696 41.55913374462226 27.79734831783855  -0.5828745594888908 41.32289272897125 -28.14389443125871  1.846315844576574 -40.69288081060628 -28.99449204824697  2.131163769570017 -40.61341290880512 29.08623098454273  2.912765243370282 40.91714248710084 28.58851603926482  1.830332722465282 40.54369602462743 -29.2037428215577  -1.516590337463391 -39.86746485689306 -30.13777031621133  -0.7493619809716024 -39.71941801649972 30.36126296865847  0.09030600380567576 39.84880047009108 30.20041300910544  -0.4475809541105788 39.84880779364038 -30.19722153965533  2.342560478306495 38.45649822240458 31.86863904963106  -0.7825800202897942 38.00961608179055 32.47547773053897  0.4381343813054983 38.20047363864364 -32.25727595515793  -0.7931864299040882 -37.88078179043455 -32.62540767918308  -0.6519336899754256 -37.68465452224034 32.85485954928534  1.518290285929787 -36.1685357088716 -34.48959001327403  2.450706926169413 -36.42880986391051 34.1604427292897  1.774606779598015 36.54581229522252 34.07718260743055  1.84414013603495 36.54863709090461 -34.07046043064309  -2.481091305328837 -35.76335936112055 -34.85435859604898  -2.806459483017353 -35.84516539523118 34.74547312900925  0.3312086774220447 35.06333039165765 35.64341682074626  0.2968290591051634 35.05259126219922 -35.65428078526988  -1.362511360545771 33.44163988887026 37.14566306226752  -1.608367489070254 33.43965090053216 -37.13762110947119  2.327985592645126 -32.14498812261113 -38.22669514459268  1.628003237965494 -32.55599386353384 37.9138084214013  1.190664476047277 31.49403639106315 38.81633663683204  1.025822837377203 31.49142387238988 -38.823162029
[...]
<PointData  Scalars="f_119"> 
<DataArray  type="Float64"  Name="f_119"  format="ascii">2.8237248320100705e-08  2.8237248320100705e-08  2.8237248320100705e-08  2.8237248320100705e-08  2.8237248320100705e-08  2.8237248320100705e-08  2.8237248320100705e-08  2.8237248320100705e-08  2.8237248320100705e-08  2.8237248320100705e-08  2.8237248320100705e-08  2.8237248320100705e-08  2.8237248320100705e-08  2.8237248320100705e-08  2.8237248320100705e-08  2.8237248320100705e-08  2.8237248320100705e-08  2.8237248320100705e-08  2.8237248320100705e-08  2.8237248320100705e-08  2.8237248320100705e-08  2.8237248320100705e-08  2.8237248320100705e-08  2.8237248320100705e-08  2.8237248320100705e-08  2.8237248320100705e-08  2.8237248320100705e-08  2.8237248320100705e-08  2.8237248320100705e-08  2.8237248320100705e-08  2.8237248320100705e-08  2.8237248320100705e-08  2.8237248320100705e-08  2.8237248320100705e-08  2.8237248320100705e-08  2.8237248320100705e-08  2.8237248320100705e-08  2.8237248320100705e-08  2.8237248320100705e-08  2.8237248320100705e-08  2.8237248320100705e-08  2.8237248320100705e-08  2.8237248320100705e-08  2.8237248320100705e-08  2.8237248320100705e-08  2.8237248320100705e-08  2.8237248320100705e-08  2.8237248320100705e-08  2.8237248320100705e-08  2.8237248320100705e-08  2.8237248320100705e-08  2.8237248320100705e-08  2.8237248320100705e-08  2.8237248320100705e-08  2.8237248320100705e-08  2.8237248320100705e-08  2.8237248320100705e-08  2.8237248320100705e-08  2.8237248320100705e-08  2.8237248320100705e-08  2.8237248320100705e-08  2.8237248320100705e-08  2.8237248320100705e-08  2.8237248320100705e-08  2.8237248320100705e-08  2.8237248320100705e-08  2.8237248320100705e-08  2.8237248320100705e-08  2.8237248320100705e-08  2.8237248320100705e-08  2.8237248320100705e-08  2.8237248320100705e-08  2.8237248320100705e-08  2.8237248320100705e-08  2.8237248320100705e-08  2.8237248320100705e-08  2.8237248320100705e-08  2.8237248320100705e-08  2.8237248320100705e-08  2.8237248320100705e-08  2.8237248320100705e-08  2.8237248320100705e-08  2.8237248320100705e-08  2.8237248320100705e-08  2.8237248320100705e-08  2.8237248320100705e-08  2.8237248320100705e-08  2.8237248320100705e-08  2.8237248320100705e-08  2.8237248320100705e-08  2.8237248320100705e-08  2.8237248320100705e-08  2.8237248320100705e-08  2.8237248320100705e-08  2.8237248320100705e-08  2.8237248320100705e-08  2.8237248320100705e-08  2.8237248320100705e-08  2.8237248320100705e-08  2.8237248320100705e-08  2.8237248320100705e-08  2.8237248320100705e-08  2.8237248320100705e-08  2.8237248320100705e-08  2.8237248320100705e-08  2.8237248320100705e-08  2.8237248320100705e-08  2.8237248320100705e-08  2.8237248320100705e-08  2.8237248320100705e-08  2.8237248320100705e-08  2.8237248320100705e-08  2.8237248320100705e-08  2.8237248320100705e-08  2.8237248320100705e-08  2.8237248320100705e-08  2.8237248320100705e-08  2.8237248320100705e-08  2.8237248320100705e-08  2.8237248320100705e-08  2.8237248320100705e-08  2.8237248320100705e-08  2.8237248320100705e-08  2.8237248320100705e-08  2.8237248320100705e-08  2.8237248320100705e-08  2.8237248320100705e-08  2.8237248320100705e-08  2.8237248320100705e-08  2.8237248320100705e-08  2.8237248320100705e-08  2.8237248320100705e-08  2.8237248320100705e-08  2.8237248320100705e-08  2.8237248320100705e-08  2.8237248320100705e-08  2.8237248320100705e-08  2.8237248320100705e-08  2.8237248320100705e-08  2.8237248320100705e-08  2.8237248320100705e-08  2.8237248320100705e-08  2.8237248320100705e-08  2.8237248320100705e-08  2.8237248320100705e-08  2.8237248320100705e-08  2.8237248320100705e-08  2.8237248320100705e-08  2.8237248320100705e-08  2.8237248320100705e-08  2.8237248320100705e-08  2.8237248320100705e-08  2.8237248320100705e-08  2.8237248320100705e-08  2.8237248320100705e-08  2.8237248320100705e-08  2.8237248320100705e-08  2.8237248320100705e-08  2.8237248320100705e-08  2.8237248320100705e-08  2.8237248320100705e-08  2.8237248320100705e-08  2.8237248320100705e-08  2.8237248320100705e-08  2.8237248320100705e-08  2.8237248320100705e-08  2.8237248320100705e-08  2.8237248320100705e-08  2.8237248320100705e-08  2.8237248320100705e-08  2.8237248320100705e-08  2.8237248320100705e-08  2.8237248320100705e-08  2.8237248320100705e-08  2.8237248320100705e-08  2.8237248320100705e-08  2.8237248320100705e-08  2.8237248320100705e-08  2.8237248320100705e-08  2.8237248320100705e-08  2.8237248320100705e-08  2.8237248320100705e-08  2.8237248320100705e-08  2.8237248320100705e-08  2.8237248320100705e-08  2.8237248320100705e-08  2.8237248320100705e-08  2.8237248320100705e-08  2.8237248320100705e-08  2.8237248320100705e-08  2.8237248320100705e-08  2.8237248320100705e-08  2.8237248320100705e-08  2.8237248320100705e-08  2.8237248320100705e-08  2.8237248320100705e-08  2.8237248320100705e-08  2.8237248320100705e-08  2.8237248320100705e-08  2.8237248320100705e-08  2.8237248320100705e-08  2.8237248320100705e-08  2.8237248320100705e-08  2.8237248320100705e-08  2.8237248320100705e-08  2.8237248320100705e-08  2.8237248320100705e-08  2.8237248320100705e-08  2.8237248320100705e-08  2.8237248320100705e-08  2.8237248320100705e-08  2.8237248320100705e-08  2.8237248320100705e-08  2.8237248320100705e-08  2.8237248320100705e-08  2.8237248320100705e-08  2.8237248320100705e-08  2.8237248320100705e-08  2.8237248320100705e-08  2.8237248320100705e-08  2.8237248320100705e-08  2.8237248320100705e-08  2.8237248320100705e-08  2.8237248320100705e-08  2.8237248320100705e-08  2.8237248320100705e-08  2.8237248320100705e-08  2.8237248320100705e-08  2.8237248320100705e-08  2.8237248320100705e-08  2.8237248320100705e-08  2.8237248320100705e-08  2.8237248320100705e-08  2.8237248320100705e-08  2.8237248320100705e-08  2.8237248320100705e-08  2.8237248320100705e-08  2.8237248320100705e-08  2.8237248320100705e-08  2.8237248320100705e-08  2.8237248320100705e-08  2.8237248320100705e-08  2.8237248320100705e-08  2.8237248320100705e-08  2.8237248320100705e-08  2.8237248320100705e-08  2.8237248320100705e-08  2.8237248320100705e-08  2.8237248320100705e-08  2.8237248320100705e-08  2.8237248320100705e-08  2.8237248320100705e-08  2.8237248320100705e-08  2.8237248320100705e-08  2.8237248320100705e-08  2.8237248320100705e-08  2.8237248320100705e-08  2.8237248320100705e-08  2.8237248320100705e-08  2.8237248320100705e-08  2.8237248320100705e-08  2.8237248320100705e-08  2.8237248320100705e-08  2.8237248320100705e-08  2.8237248320100705e-08  2.8237248320100705e-08  2.8237248320100705e-08  2.8237248320100705e-08  2.8237248320100705e-08  2.8237248320100705e-08  2.8237248320100705e-08  2.8237248320100705e-08  2.8237248320100705e-08  2.8237248320100705e-08  2.8237248320100705e-08  2.8237248320100705e-08  2.8237248320100705e-08  2.8237248320100705e-08  2.8237248320100705e-08  2.8237248320100705e-08  2.8237248320100705e-08  2.8237248320100705e-08  2.8237248320100705e-08  2.8237248320100705e-08  2.8237248320100705e-08  2.8237248320100705e-08  2.8237248320100705e-08  2.8237248320100705e-08  2.8237248320100705e-08  2.8237248320100705e-08  2.8237248320100705e-08  2.8237248320100705e-08  2.8237248320100705e-08  2.8237248320100705e-08  2.8237248320100705e-08  2.8237248320100705e-08  2.8237248320100705e-08  2.8237248320100705e-08  2.8237248320100705e-08  2.8237248320100705e-08  2.8237248320100705e-08  2.8237248320100705e-08  2.8237248320100705e-08  2.8237248320100705e-08  2.8237248320100705e-08  2.8237248320100705e-08  2.8237248320100705e-08  2.8237248320100705e-08  2.8237248320100705e-08  2.8237248320100705e-08  2.8237248320100705e-08  2.8237248320100705e-08  2.8237248320100705e-08  2.8237248320100705e-08  2.8237248320100705e-08  2.8237248320100705e-08  2.8237248320100705e-08  2.8237248320100705e-08  2.8237248320100705e-08  2.8237248320100705e-08  2.8237248320100705e-08  2.8237248320100705e-08  2.8237248320100705e-08  2.8237248320100705e-08  2.8237248320100705e-08  2.8237248320100705e-08  2.8237248320100705e-08  2.8237248320100705e-08  2.8237248320100705e-08  2.8237248320100705e-08  2.8237248320100705e-08  2.8237248320100705e-08  2.8237248320100705e-08  2.8237248320100705e-08  2.8237248320100705e-08  2.8237248320100705e-08  2.8237248320100705e-08  2.8237248320100705e-08  2.8237248320100705e-08  2.8237248320100705e-08  2.8237248320100705e-08  2.8237248320100705e-08  2.8237248320100705e-08  2.8237248320100705e-08  2.8237248320100705e-08  2.8237248320100705e-08  2.8237248320100705e-08  2.8237248320100705e-08  2.8237248320100705e-08  2.8237248320100705e-08  2.8237248320100705e-08  2.8237248320100705e-08  2.8237248320100705e-08  2.8237248320100705e-08  2.8237248320100705e-08  2.8237248320100705e-08  2.8237248320100705e-08  2.8237248320100705e-08  2.8237248320100705e-08  2.8237248320100705e-08  2.8237248320100705e-08  2.8237248320100705e-08  2.8237248320100705e-08  2.8237248320100705e-08  2.8237248320100705e-08  2.8237248320100705e-08  2.8237248320100705e-08  2.8237248320100705e-08  2.8237248320100705e-08  2.8237248320100705e-08  2.8237248320100705e-08  2.8237248320100705e-08  2.8237248320100705e-08  2.8237248320100705e-08  2.8237248320100705e-08  2.8237248320100705e-08  2.8237248320100705e-08  2.8237248320100705e-08  2.8237248320100705e-08  2.8237248320100705e-08  2.8237248320100705e-08  2.8237248320100705e-08  2.8237248320100705e-08  2.8237248320100705e-08  2.8237248320100705e-08  2.8237248320100705e-08  2.8237248320100705e-08  2.8237248320100705e-08  2.8237248320100705e-08  2.8237248320100705e-08  2.8237248320100705e-08  2.8237248320100705e-08  2.8237248320100705e-08  2.8237248320100705e-08  2.8237248320100705e-08  2.8237248320100705e-08  2.8237248320100705e-08  2.8237248320100705e-08  2.8237248320100705e-08  2.8237248320100705e-08  2.8237248320100705e-08  2.8237248320100705e-08  2.8237248320100705e-08  2.8237248320100705e-08  2.8237248320100705e-08  2.8237248320100705e-08  2.8237248320100705e-08  2.8237248320100705e-08  2.8237248320100705e-08  2.8237248320100705e-08  2.8237248320100705e-08  2.8237248320100705e-08  2.8237248320100705e-08  2.8237248320100705e-08  2.8237248320100705e-08  2.8237248320100705e-08  2.8237248320100705e-08  2.8237248320100705e-08  2.8237248320100705e-08  2.8237248320100705e-08  2.8237248320100705e-08  2.8237248320100705e-08  2.8237248320100705e-08  2.8237248320100705e-08  2.8237248320100705e-08  2.8237248320100705e-08  2.8237248320100705e-08  2.8237248320100705e-08  2.8237248320100705e-08  2.8237248320100705e-08  2.8237248320100705e-08  2.8237248320100705e-08  2.8237248320100705e-08  2.8237248320100705e-08  2.8237248320100705e-08  2.8237248320100705e-08  2.8237248320100705e-08  2.8237248320100705e-08  2.8237248320100705e-08  2.8237248320100705e-08  2.8237248320100705e-08  2.8237248320100705e-08  2.8237248320100705e-08  2.8237248320100705e-08  2.8237248320100705e-08  2.8237248320100705e-08  2.8237248320100705e-08  2.8237248320100705e-08  2.8237248320100705e-08  2.8237248320100705e-08  2.8237248320100705e-08  2.8237248320100705e-08  2.8237248320100705e-08  2.8237248320100705e-08  2.8237248320100705e-08  2.8237248320100705e-08  2.8237248320100705e-08  2.8237248320100705e-08  2.8237248320100705e-08  2.8237248320100705e-08  2.8237248320100705e-08  2.8237248320100705e-08  2.8237248320100705e-08  2.8237248320100705e-08  2.8237248320100705e-08  2.8237248320100705e-08  2.8237248320100705e-08  2.8237248320100705e-08  2.8237248320100705e-08  2.8237248320100705e-08  2.8237248320100705e-08  2.8237248320100705e-08  2.8237248320100705e-08  2.8237248320100705e-08  2.8237248320100705e-08  2.8237248320100705e-08  2.8237248320100705e-08  2.8237248320100705e-08  2.8237248320100705e-08  2.8237248320100705e-08  2.8237248320100705e-08  2.8237248320100705e-08  2.8237248320100705e-08  2.8237248320100705e-08  2.8237248320100705e-08  2.8237248320100705e-08  2.8237248320100705e-08  2.8237248320100705e-08  2.8237248320100705e-08  2.8237248320100705e-08  2.8237248320100705e-08  2.8237248320100705e-08  2.8237248320100705e-08  2.8237248320100705e-08  2.8237248320100705e-08  2.8237248320100705e-08  2.8237248320100705e-08  2.8237248320100705e-08  2.8237248320100705e-08  2.8237248320100705e-08  2.8237248320100705e-08  2.8237248320100705e-08  2.8237248320100705e-08  2.8237248320100705e-08  2.8237248320100705e-08  2.8237248320100705e-08  2.8237248320100705e-08  2.8237248320100705e-08  2.8237248320100705e-08  2.8237248320100705e-08  2.8237248320100705e-08  2.8237248320100705e-08  2.8237248320100705e-08  2.8237248320100705e-08  2.8237248320100705e-08  2.8237248320100705e-08  2.8237248320100705e-08  2.8237248320100705e-08  2.8237248320100705e-08  2.8237248320100705e-08  2.8237248320100705e-08  2.8237248320100705e-08  2.8237248320100705e-08  2.8237248320100705e-08  2.8237248320100705e-08  2.8237248320100705e-08  2.8237248320100705e-08  2.8237248320100705e-08  2.8237248320100705e-08  2.8237248320100705e-08  2.8237248320100705e-08  2.8237248320100705e-08  2.8237248320100705e-08  2.8237248320100705e-08  2.8237248320100705e-08  2.8237248320100705e-08  2.8237248320100705e-08  2.8237248320100705e-08  2.8237248320100705e-08  2.8237248320100705e-08  2.8237248320100705e-08  2.8237248320100705e-08  2.8237248320100705e-08  2.8237248320100705e-08  2.8237248320100705e-08  2.8237248320100705e-08  2.8237248320100705e-08  2.8237248320100705e-08  2.8237248320100705e-08  2.8237248320100705e-08  2.8237248320100705e-08  2.8237248320100705e-08  2.8237248320100705e-08  2.8237248320100705e-08  2.8237248320100705e-08  2.8237248320100705e-08  2.8237248320100705e-08  2.8237248320100705e-08  2.8237248320100705e-08  2.8237248320100705e-08  2.8237248320100705e-08  2.8237248320100705e-08  2.8237248320100705e-08  2.8237248320100705e-08  2.8237248320100705e-08  2.8237248320100705e-08  2.8237248320100705e-08  2.8237248320100705e-08  2.8237248320100705e-08  2.8237248320100705e-08  2.8237248320100705e-08  2.8237248320100705e-08  2.8237248320100705e-08  2.8237248320100705e-08  2.8237248320100705e-08  2.8237248320100705e-08  2.8237248320100705e-08  2.8237248320100705e-08  2.8237248320100705e-08  2.8237248320100705e-08  2.8237248320100705e-08  2.8237248320100705e-08  2.8237248320100705e-08  2.8237248320100705e-08  2.8237248320100705e-08  2.8237248320100705e-08  2.8237248320100705e-08  2.8237248320100705e-08  2.8237248320100705e-08  2.8237248320100705e-08  2.8237248320100705e-08  2.8237248320100705e-08  2.8237248320100705e-08  2.8237248320100705e-08  2.8237248320100705e-08  2.8237248320100705e-08  2.8237248320100705e-08  2.8237248320100705e-08  2.8237248320100705e-08  2.8237248320100705e-08  2.8237248320100705e-08  2.8237248320100705e-08  2.8237248320100705e-08  2.8237248320100705e-08  2.8237248320100705e-08  2.8237248320100705e-08  2.8237248320100705e-08  2.8237248320100705e-08  2.8237248320100705e-08  2.8237248320100705e-08  2.8237248320100705e-08  2.8237248320100705e-08  2.8237248320100705e-08  2.8237248320100705e-08  2.8237248320100705e-08  2.8237248320100705e-08  2.8237248320100705e-08  2.8237248320100705e-08  2.8237248320100705e-08  2.8237248320100705e-08  2.8237248320100705e-08  2.8237248320100705e-08  2.8237248320100705e-08  2.8237248320100705e-08  2.8237248320100705e-08  2.8237248320100705e-08  2.8237248320100705e-08  2.8237248320100705e-08  2.8237248320100705e-08  2.8237248320100705e-08  2.8237248320100705e-08  2.8237248320100705e-08  2.8237248320100705e-08  2.8237248320100705e-08  2.8237248320100705e-08  2.8237248320100705e-08  2.8237248320100705e-08  2.8237248320100705e-08  2.8237248320100705e-08  2.8237248320100705e-08  2.8237248320100705e-08  2.8237248320100705e-08  2.8237248320100705e-08  2.8237248320100705e-08  2.8237248320100705e-08  2.8237248320100705e-08  2.8237248320100705e-08  2.8237248320100705e-08  2.8237248320100705e-08  2.8237248320100705e-08  2.8237248320100705e-08  2.8237248320100705e-08  2.8237248320100705e-08  2.8237248320100705e-08  2.8237248320100705e-08  2.8237248320100705e-08  2.8237248320100705e-08  2.8237248320100705e-08  2.8237248320100705e-08  2.8237248320100705e-08  2.8237248320100705e-08  2.8237248320100705e-08  2.8237248320100705e-08  2.8237248320100705e-08  2.8237248320100705e-08  2.8237248320100705e-08  2.8237248320100705e-08  2.8237248320100705e-08  2.8237248320100705e-08  2.8237248320100705e-08  2.8237248320100705e-08  2.8237248320100705e-08  2.8237248320100705e-08  2.8237248320100705e-08  2.8237248320100705e-08  2.8237248320100705e-08  2.8237248320100705e-08  2.8237248320100705e-08  2.8237248320100705e-08  2.8237248320100705e-08  2.8237248320100705e-08  2.8237248320100705e-08  2.8237248320100705e-08  2.8237248320100705e-08  2.8237248320100705e-08  2.8237248320100705e-08  2.8237248320100705e-08  2.8237248320100705e-08  2.8237248320100705e-08  2.8237248320100705e-08  2.8237248320100705e-08  2.8237248320100705e-08  2.8237248320100705e-08  2.8237248320100705e-08  2.8237248320100705e-08  2.8237248320100705e-08  2.8237248320100705e-08  2.8237248320100705e-08  2.8237248320100705e-08  2.8237248320100705e-08  2.8237248320100705e-08  2.8237248320100705e-08  2.8237248320100705e-08  2.8237248320100705e-08  2.8237248320100705e-08  2.8237248320100705e-08  2.8237248320100705e-08  2.8237248320100705e-08  2.8237248320100705e-08  2.8237248320100705e-08  2.8237248320100705e-08  2.8237248320100705e-08  2.8237248320100705e-08  2.8237248320100705e-08  2.8237248320100705e-08  2.8237248320100705e-08  2.8237248320100705e-08  2.8237248320100705e-08  2.8237248320100705e-08  2.8237248320100705e-08  2.8237248320100705e-08  2.8237248320100705e-08  2.8237248320100705e-08  2.8237248320100705e-08  2.8237248320100705e-08  2.8237248320100705e-08  2.8237248320100705e-08  2.8237248320100705e-08  2.8237248320100705e-08  2.8237248320100705e-08  2.8237248320100705e-08  2.8237248320100705e-08  2.8237248320100705e-08  2.8237248320100705e-08  2.8237248320100705e-08  2.8237248320100705e-08  2.8237248320100705e-08  2.8237248320100705e-08  2.8237248320100705e-08  2.8237248320100705e-08  2.8237248320100705e-08  2.8237248320100705e-08  2.8237248320100705e-08  2.8237248320100705e-08  2.8237248320100705e-08  2.8237248320100705e-08  2.8237248320100705e-08  2.8237248320100705e-08  2.8237248320100705e-08  2.8237248320100705e-08  2.8237248320100705e-08  2.8237248320100705e-08  2.8237248320100705e-08  2.8237248320100705e-08  2.8237248320100705e-08  2.8237248320100705e-08  2.8237248320100705e-08  2.8237248320100705e-08  2.8237248320100705e-08  2.8237248320100705e-08  2.8237248320100705e-08  2.8237248320100705e-08  2.8237248320100705e-08  2.8237248320100705e-08  2.8237248320100705e-08  2.8237248320100705e-08  2.8237248320100705e-08  2.8237248320100705e-08  2.8237248320100705e-08  2.8237248320100705e-08  2.8237248320100705e-08  2.8237248320100705e-08  2.8237248320100705e-08  2.8237248320100705e-08  2.8237248320100705e-08  2.8237248320100705e-08  2.8237248320100705e-08  2.8237248320100705e-08  2.8237248320100705e-08  2.8237248320100705e-08  2.8237248320100705e-08  2.8237248320100705e-08  2.8237248320100705e-08  2.8237248320100705e-08  2.8237248320100705e-08  2.8237248320100705e-08  2.8237248320100705e-08  2.8237248320100705e-08  2.8237248320100705e-08  2.8237248320100705e-08  2.8237248320100705e-08  2.8237248320100705e-08  2.8237248320100705e-08  2.8237248320100705e-08  2.8237248320100705e-08  2.8237248320100705e-08  2.8237248320100705e-08  2.8237248320100705e-08  2.8237248320100705e-08  2.8237248320100705e-08  2.8237248320100705e-08  2.8237248320100705e-08  2.8237248320100705e-08  2.8237248320100705e-08  2.8237248320100705e-08  2.8237248320100705e-08  2.8237248320100705e-08  2.8237248320100705e-08  2.8237248320100705e-08  2.8237248320100705e-08  2.8237248320100705e-08  2.8237248320100705e-08  2.8237248320100705e-08  2.8237248320100705e-08  2.8237248320100705e-08  2.8237248320100705e-08  2.8237248320100705e-08  2.8237248320100705e-08  2.8237248320100705e-08  2.8237248320100705e-08  2.8237248320100705e-08  2.8237248320100705e-08  2.8237248320100705e-08  2.8237248320100705e-08  2.8237248320100705e-08  2.8237248320100705e-08  2.8237248320100705e-08  2.8237248320100705e-08  2.8237248320100705e-08  2.823724832010070